    compute kinAt all ke/atom
    dump 1 all custom 100 res/wp2_p.dump.gz id type x y z c_kinAt
    dump_modify 1 format line "%d %d %.7f %.7f %.7f %.6e"
    thermo         100
    thermo_style   custom step ke pe etotal temp press vol time v_amp
WARNING: New thermo_style command, previous thermo_modify settings will be lost (src/output.cpp:689)
    thermo_modify format line "%d %.8e %.8e %.8e %.8e %.8e %.8e %f %.8e"


    # output the kin(pos,time)
    fix 4 fixed1 setforce 0.0 0.0 0.0
    fix 5 fixed2 setforce 0.0 0.0 0.0





    fix 1 all nve
    fix 2 AtImpulse addforce  v_amp 0.0 0.0  # excitation, the orientation can be changed by changing the component over the different direction
    #fix 3 all recenter INIT INIT INIT # Prevent the center of mass to move from is original position
    run 6000
Per MPI rank memory allocation (min/avg/max) = 3.517 | 4.571 | 4.616 Mbytes
Step KinEng PotEng TotEng Temp Press Volume Time v_amp 
0 0.00000000e+00 -4.70113087e+05 -4.70113087e+05 0.00000000e+00 -4.38009536e+02 3.34809438e+06 0.000000 -5.25324773e-07 
100 1.73075115e-09 -4.70113087e+05 -4.70113087e+05 9.35235532e-11 -4.38009535e+02 3.34809438e+06 0.100000 6.35216624e-06 
200 1.23283893e-08 -4.70113087e+05 -4.70113087e+05 6.66181718e-10 -4.38009541e+02 3.34809438e+06 0.200000 -1.86811465e-05 
300 6.87431944e-08 -4.70113087e+05 -4.70113087e+05 3.71463443e-09 -4.38009456e+02 3.34809438e+06 0.300000 3.26487624e-05 
400 2.44366330e-07 -4.70113087e+05 -4.70113087e+05 1.32046756e-08 -4.38009306e+02 3.34809438e+06 0.400000 -3.05317664e-05 
500 5.85040788e-07 -4.70113087e+05 -4.70113087e+05 3.16134953e-08 -4.38009153e+02 3.34809438e+06 0.500000 -1.29154194e-05 
600 1.27386178e-06 -4.70113087e+05 -4.70113087e+05 6.88348985e-08 -4.38009278e+02 3.34809438e+06 0.600000 1.06181927e-04 
700 3.27222199e-06 -4.70113087e+05 -4.70113087e+05 1.76819081e-07 -4.38008923e+02 3.34809438e+06 0.700000 -2.12314861e-04 
800 7.76343194e-06 -4.70113087e+05 -4.70113087e+05 4.19507877e-07 -4.38009563e+02 3.34809438e+06 0.800000 2.52285160e-04 
900 1.37935015e-05 -4.70113087e+05 -4.70113087e+05 7.45351100e-07 -4.38008926e+02 3.34809438e+06 0.900000 -1.60407633e-04 
1000 1.93223055e-05 -4.70113087e+05 -4.70113087e+05 1.04410774e-06 -4.38009418e+02 3.34809438e+06 1.000000 -4.61349155e-05 
1100 2.55764326e-05 -4.70113087e+05 -4.70113087e+05 1.38205822e-06 -4.38009663e+02 3.34809438e+06 1.100000 2.57881351e-04 
1200 3.44164262e-05 -4.70113087e+05 -4.70113087e+05 1.85973961e-06 -4.38007862e+02 3.34809438e+06 1.200000 -3.50588641e-04 
1300 4.26448629e-05 -4.70113087e+05 -4.70113087e+05 2.30437467e-06 -4.38010715e+02 3.34809438e+06 1.300000 2.83241751e-04 
1400 4.67345225e-05 -4.70113087e+05 -4.70113087e+05 2.52536513e-06 -4.38007235e+02 3.34809438e+06 1.400000 -1.22444339e-04 
1500 4.83976148e-05 -4.70113087e+05 -4.70113087e+05 2.61523264e-06 -4.38009827e+02 3.34809438e+06 1.500000 -2.39437146e-05 
1600 4.99545585e-05 -4.70113087e+05 -4.70113087e+05 2.69936427e-06 -4.38009875e+02 3.34809438e+06 1.600000 9.09975817e-05 
1700 5.08925408e-05 -4.70113087e+05 -4.70113087e+05 2.75004945e-06 -4.38007644e+02 3.34809438e+06 1.700000 -8.41115958e-05 
1800 5.10684702e-05 -4.70113087e+05 -4.70113087e+05 2.75955604e-06 -4.38011513e+02 3.34809438e+06 1.800000 4.62022811e-05 
1900 5.14341423e-05 -4.70113087e+05 -4.70113087e+05 2.77931564e-06 -4.38007986e+02 3.34809438e+06 1.900000 -1.35797876e-05 
2000 5.18018295e-05 -4.70113087e+05 -4.70113087e+05 2.79918413e-06 -4.38009453e+02 3.34809438e+06 2.000000 -1.80548510e-06 
2100 5.15020866e-05 -4.70113087e+05 -4.70113087e+05 2.78298711e-06 -4.38009902e+02 3.34809438e+06 2.100000 4.66530830e-06 
2200 5.10207504e-05 -4.70113087e+05 -4.70113087e+05 2.75697743e-06 -4.38008207e+02 3.34809438e+06 2.200000 -2.93193600e-06 
2300 5.12028909e-05 -4.70113087e+05 -4.70113087e+05 2.76681965e-06 -4.38009922e+02 3.34809438e+06 2.300000 1.09498999e-06 
2400 5.17660612e-05 -4.70113087e+05 -4.70113087e+05 2.79725134e-06 -4.38009272e+02 3.34809438e+06 2.400000 -2.18820408e-07 
2500 5.15874038e-05 -4.70113087e+05 -4.70113087e+05 2.78759734e-06 -4.38009440e+02 3.34809438e+06 2.500000 -1.97804821e-08 
2600 5.01229249e-05 -4.70113087e+05 -4.70113087e+05 2.70846218e-06 -4.38009414e+02 3.34809438e+06 2.600000 3.47513299e-08 
2700 4.92833520e-05 -4.70113087e+05 -4.70113087e+05 2.66309469e-06 -4.38009820e+02 3.34809438e+06 2.700000 -1.48488795e-08 
2800 5.29655497e-05 -4.70113087e+05 -4.70113087e+05 2.86206738e-06 -4.38008551e+02 3.34809438e+06 2.800000 3.77048712e-09 
2900 5.82129553e-05 -4.70113087e+05 -4.70113087e+05 3.14561826e-06 -4.38009906e+02 3.34809438e+06 2.900000 -5.12298699e-10 
3000 5.41242896e-05 -4.70113087e+05 -4.70113087e+05 2.92468150e-06 -4.38008852e+02 3.34809438e+06 3.000000 -3.14862122e-11 
3100 4.36099220e-05 -4.70113087e+05 -4.70113087e+05 2.35652298e-06 -4.38009372e+02 3.34809438e+06 3.100000 3.76099791e-11 
3200 4.37709044e-05 -4.70113087e+05 -4.70113087e+05 2.36522189e-06 -4.38010014e+02 3.34809438e+06 3.200000 -1.09263086e-11 
3300 5.32677272e-05 -4.70113087e+05 -4.70113087e+05 2.87839596e-06 -4.38008585e+02 3.34809438e+06 3.300000 1.88636338e-12 
3400 5.64540086e-05 -4.70113087e+05 -4.70113087e+05 3.05057112e-06 -4.38010509e+02 3.34809438e+06 3.400000 -1.74260624e-13 
3500 5.30198577e-05 -4.70113087e+05 -4.70113087e+05 2.86500199e-06 -4.38008811e+02 3.34809438e+06 3.500000 -7.28189726e-15 
3600 5.08570922e-05 -4.70113087e+05 -4.70113087e+05 2.74813393e-06 -4.38009995e+02 3.34809438e+06 3.600000 5.91391853e-15 
3700 5.06855939e-05 -4.70113087e+05 -4.70113087e+05 2.73886679e-06 -4.38010259e+02 3.34809438e+06 3.700000 -1.16813712e-15 
3800 5.08069856e-05 -4.70113087e+05 -4.70113087e+05 2.74542636e-06 -4.38008920e+02 3.34809438e+06 3.800000 1.37117800e-16 
3900 5.09265440e-05 -4.70113087e+05 -4.70113087e+05 2.75188686e-06 -4.38010530e+02 3.34809438e+06 3.900000 -8.61223479e-18 
4000 5.11712538e-05 -4.70113087e+05 -4.70113087e+05 2.76511010e-06 -4.38010884e+02 3.34809438e+06 4.000000 -2.44686078e-19 
4100 5.17195005e-05 -4.70113087e+05 -4.70113087e+05 2.79473537e-06 -4.38008247e+02 3.34809438e+06 4.100000 1.35110209e-19 
4200 5.20097517e-05 -4.70113087e+05 -4.70113087e+05 2.81041950e-06 -4.38012003e+02 3.34809438e+06 4.200000 -1.81449080e-20 
4300 5.14899418e-05 -4.70113087e+05 -4.70113087e+05 2.78233085e-06 -4.38011272e+02 3.34809438e+06 4.300000 1.44811449e-21 
4400 5.07225016e-05 -4.70113087e+05 -4.70113087e+05 2.74086115e-06 -4.38001542e+02 3.34809438e+06 4.400000 -6.18405067e-23 
4500 5.06644636e-05 -4.70113087e+05 -4.70113087e+05 2.73772498e-06 -4.38026563e+02 3.34809438e+06 4.500000 -1.19457811e-24 
4600 5.18309107e-05 -4.70113087e+05 -4.70113087e+05 2.80075558e-06 -4.37988557e+02 3.34809438e+06 4.600000 4.48478447e-25 
4700 5.30732044e-05 -4.70113087e+05 -4.70113087e+05 2.86788465e-06 -4.38027429e+02 3.34809438e+06 4.700000 -4.09502255e-26 
4800 5.18638517e-05 -4.70113087e+05 -4.70113087e+05 2.80253559e-06 -4.38007280e+02 3.34809438e+06 4.800000 2.22204343e-27 
4900 4.92983829e-05 -4.70113087e+05 -4.70113087e+05 2.66390690e-06 -4.37995346e+02 3.34809438e+06 4.900000 -6.45165002e-29 
5000 4.97757954e-05 -4.70113087e+05 -4.70113087e+05 2.68970455e-06 -4.38037573e+02 3.34809438e+06 5.000000 -8.47345312e-31 
5100 5.23805620e-05 -4.70113087e+05 -4.70113087e+05 2.83045675e-06 -4.37982946e+02 3.34809438e+06 5.100000 2.16289567e-31 
5200 5.27010534e-05 -4.70113087e+05 -4.70113087e+05 2.84777495e-06 -4.38026484e+02 3.34809438e+06 5.200000 -1.34276004e-32 
5300 5.13618795e-05 -4.70113087e+05 -4.70113087e+05 2.77541082e-06 -4.38007344e+02 3.34809438e+06 5.300000 4.95384906e-34 
5400 5.08369268e-05 -4.70113087e+05 -4.70113087e+05 2.74704427e-06 -4.38003560e+02 3.34809438e+06 5.400000 -9.77933095e-36 
5500 5.09471218e-05 -4.70113087e+05 -4.70113087e+05 2.75299881e-06 -4.38019493e+02 3.34809438e+06 5.500000 -8.73266683e-38 
5600 5.13474970e-05 -4.70113087e+05 -4.70113087e+05 2.77463364e-06 -4.38003351e+02 3.34809438e+06 5.600000 1.51554958e-38 
5700 5.19821206e-05 -4.70113087e+05 -4.70113087e+05 2.80892642e-06 -4.38013684e+02 3.34809438e+06 5.700000 -6.39706998e-40 
5800 5.19676118e-05 -4.70113087e+05 -4.70113087e+05 2.80814241e-06 -4.38009985e+02 3.34809438e+06 5.800000 1.60462509e-41 
5900 5.11495206e-05 -4.70113087e+05 -4.70113087e+05 2.76393571e-06 -4.38007982e+02 3.34809438e+06 5.900000 -2.15371419e-43 
6000 5.07408518e-05 -4.70113087e+05 -4.70113087e+05 2.74185272e-06 -4.38012701e+02 3.34809438e+06 6.000000 -1.30759706e-45 
Loop time of 58.0154 on 100 procs for 6000 steps with 143170 atoms

Performance: 8.936 ns/day, 2.686 hours/ns, 103.421 timesteps/s
96.7% CPU use with 100 MPI tasks x 1 OpenMP threads

MPI task timing breakdown:
Section |  min time  |  avg time  |  max time  |%varavg| %total
---------------------------------------------------------------
Pair    | 0.0012355  | 9.6839     | 11.577     |  87.4 | 16.69
Neigh   | 0          | 0          | 0          |   0.0 |  0.00
Comm    | 0.0032454  | 2.8952     | 7.7167     |  91.0 |  4.99
Output  | 40.536     | 40.569     | 40.699     |   0.5 | 69.93
Modify  | 0.12192    | 0.27379    | 0.3164     |   8.1 |  0.47
Other   |            | 4.593      |            |       |  7.92

Nlocal:        1431.70 ave        1705 max           0 min
Histogram: 3 0 7 0 8 2 0 3 2 75
Nghost:        1340.77 ave        1668 max           0 min
Histogram: 3 0 0 7 6 2 3 4 32 43
Neighs:         0.00000 ave           0 max           0 min
Histogram: 100 0 0 0 0 0 0 0 0 0
FullNghs:      22750.9 ave       27280 max           0 min
Histogram: 3 0 7 0 8 2 1 2 2 75

Total # of neighbors = 2275092
Ave neighs/atom = 15.890843
Neighbor list builds = 0
Dangerous builds = 0

    next f
    # undo fix, compute.. before switching to the next iteration
    unfix 5
    unfix 4
    unfix 3
ERROR: Could not find fix ID to delete (src/modify.cpp:1063)
Last command:     unfix 3
