    compute kinAt all ke/atom
    dump 1 all custom 100 res/wp2_c.dump.gz id type x y z c_kinAt
    dump_modify 1 format line "%d %d %.7f %.7f %.7f %.6e"
    thermo         100
    thermo_style   custom step ke pe etotal temp press vol time v_amp
WARNING: New thermo_style command, previous thermo_modify settings will be lost (src/output.cpp:689)
    thermo_modify format line "%d %.8e %.8e %.8e %.8e %.8e %.8e %f %.8e"
    #compute chunk all chunk/atom bin/1d x lower $(1/v_Nbin) units reduced # passage en bin 2d

    # output the kin(pos,time)
    fix 4 fixed1 setforce 0.0 0.0 0.0
    fix 5 fixed2 setforce 0.0 0.0 0.0

    # fix FKin all ave/chunk 10 1 10 chunk c_kinAt file res/AverageEkinfreq$fNbin${Nbin}.out



    fix 1 all nve
    fix 2 AtImpulse addforce  v_amp 0.0 0.0  # excitation, the orientation can be changed by changing the component over the different direction
    #fix 3 all recenter INIT INIT INIT # Prevent the center of mass to move from is original position
	run 6000
Per MPI rank memory allocation (min/avg/max) = 5.175 | 5.586 | 5.647 Mbytes
Step KinEng PotEng TotEng Temp Press Volume Time v_amp 
0 0.00000000e+00 -5.30998693e+05 -5.30998693e+05 0.00000000e+00 -5.64297887e+02 3.34963508e+06 0.000000 -5.25324773e-07 
100 6.02783520e-09 -5.30998693e+05 -5.30998693e+05 2.89021701e-10 -5.64297887e+02 3.34963508e+06 0.100000 6.35216624e-06 
200 4.50816646e-08 -5.30998693e+05 -5.30998693e+05 2.16156862e-09 -5.64297887e+02 3.34963508e+06 0.200000 -1.86811465e-05 
300 2.45648806e-07 -5.30998693e+05 -5.30998693e+05 1.17783306e-08 -5.64297887e+02 3.34963508e+06 0.300000 3.26487624e-05 
400 8.49469696e-07 -5.30998693e+05 -5.30998693e+05 4.07302404e-08 -5.64297886e+02 3.34963508e+06 0.400000 -3.05317664e-05 
500 2.03718238e-06 -5.30998693e+05 -5.30998693e+05 9.76785028e-08 -5.64297885e+02 3.34963508e+06 0.500000 -1.29154194e-05 
600 4.60429498e-06 -5.30998693e+05 -5.30998693e+05 2.20766017e-07 -5.64297883e+02 3.34963508e+06 0.600000 1.06181927e-04 
700 1.19694222e-05 -5.30998693e+05 -5.30998693e+05 5.73907986e-07 -5.64297876e+02 3.34963508e+06 0.700000 -2.12314861e-04 
800 2.78978053e-05 -5.30998693e+05 -5.30998693e+05 1.33763962e-06 -5.64297637e+02 3.34963508e+06 0.800000 2.52285160e-04 
900 4.90922459e-05 -5.30998693e+05 -5.30998692e+05 2.35386734e-06 -5.64295354e+02 3.34963508e+06 0.900000 -1.60407633e-04 
1000 6.95822094e-05 -5.30998693e+05 -5.30998692e+05 3.33631692e-06 -5.64299182e+02 3.34963508e+06 1.000000 -4.61349155e-05 
1100 9.34089340e-05 -5.30998692e+05 -5.30998692e+05 4.47875699e-06 -5.64292368e+02 3.34963508e+06 1.100000 2.58279623e-04 
1200 1.26148064e-04 -5.30998692e+05 -5.30998692e+05 6.04852767e-06 -5.64298808e+02 3.34963508e+06 1.200000 -3.70616980e-04 
1300 1.63147639e-04 -5.30998692e+05 -5.30998692e+05 7.82257754e-06 -5.64302885e+02 3.34963508e+06 1.300000 3.41391247e-04 
1400 1.91835079e-04 -5.30998692e+05 -5.30998692e+05 9.19807843e-06 -5.64272061e+02 3.34963508e+06 1.400000 -1.81765661e-04 
1500 2.07265114e-04 -5.30998692e+05 -5.30998692e+05 9.93791535e-06 -5.64341727e+02 3.34963508e+06 1.500000 -4.72882290e-05 
1600 2.30645865e-04 -5.30998692e+05 -5.30998692e+05 1.10589719e-05 -5.64242925e+02 3.34963508e+06 1.600000 2.58279623e-04 
1700 2.87942315e-04 -5.30998692e+05 -5.30998692e+05 1.38062132e-05 -5.64331272e+02 3.34963508e+06 1.700000 -3.70616980e-04 
1800 3.46293440e-04 -5.30998692e+05 -5.30998692e+05 1.66040238e-05 -5.64311452e+02 3.34963508e+06 1.800000 3.41391247e-04 
1900 3.39337842e-04 -5.30998692e+05 -5.30998692e+05 1.62705179e-05 -5.64225243e+02 3.34963508e+06 1.900000 -1.81765661e-04 
2000 2.97429358e-04 -5.30998692e+05 -5.30998692e+05 1.42610964e-05 -5.64401610e+02 3.34963508e+06 2.000000 -4.72882290e-05 
2100 3.37247114e-04 -5.30998692e+05 -5.30998692e+05 1.61702720e-05 -5.64198271e+02 3.34963508e+06 2.100000 2.58279623e-04 
2200 4.74307122e-04 -5.30998692e+05 -5.30998692e+05 2.27420039e-05 -5.64349509e+02 3.34963508e+06 2.200000 -3.70616980e-04 
2300 5.62788131e-04 -5.30998692e+05 -5.30998692e+05 2.69844775e-05 -5.64308608e+02 3.34963508e+06 2.300000 3.41391247e-04 
2400 5.03184984e-04 -5.30998692e+05 -5.30998692e+05 2.41266351e-05 -5.64222635e+02 3.34963508e+06 2.400000 -1.81765661e-04 
2500 4.15614272e-04 -5.30998692e+05 -5.30998692e+05 1.99278083e-05 -5.64403127e+02 3.34963508e+06 2.500000 -4.72882290e-05 
2600 4.74715929e-04 -5.30998692e+05 -5.30998691e+05 2.27616053e-05 -5.64196889e+02 3.34963508e+06 2.600000 2.58279623e-04 
2700 6.44731934e-04 -5.30998692e+05 -5.30998691e+05 3.09135061e-05 -5.64349930e+02 3.34963508e+06 2.700000 -3.70616980e-04 
2800 7.51839040e-04 -5.30998692e+05 -5.30998691e+05 3.60490609e-05 -5.64309482e+02 3.34963508e+06 2.800000 3.41391247e-04 
2900 7.44470040e-04 -5.30998692e+05 -5.30998691e+05 3.56957333e-05 -5.64222443e+02 3.34963508e+06 2.900000 -1.81765661e-04 
3000 6.96109935e-04 -5.30998692e+05 -5.30998691e+05 3.33769705e-05 -5.64403050e+02 3.34963508e+06 3.000000 -4.72882290e-05 
3100 6.70757618e-04 -5.30998692e+05 -5.30998691e+05 3.21613816e-05 -5.64199183e+02 3.34963508e+06 3.100000 2.58279623e-04 
3200 7.22676190e-04 -5.30998692e+05 -5.30998691e+05 3.46507652e-05 -5.64347968e+02 3.34963508e+06 3.200000 -3.70616980e-04 
3300 8.77435652e-04 -5.30998692e+05 -5.30998691e+05 4.20711477e-05 -5.64311244e+02 3.34963508e+06 3.300000 3.41391247e-04 
3400 1.04270833e-03 -5.30998692e+05 -5.30998691e+05 4.99956163e-05 -5.64222300e+02 3.34963508e+06 3.400000 -1.81765661e-04 
3500 1.05221752e-03 -5.30998692e+05 -5.30998691e+05 5.04515615e-05 -5.64402533e+02 3.34963508e+06 3.500000 -4.72882290e-05 
3600 8.80934050e-04 -5.30998692e+05 -5.30998691e+05 4.22388883e-05 -5.64199822e+02 3.34963508e+06 3.600000 2.58279623e-04 
3700 7.55283534e-04 -5.30998691e+05 -5.30998691e+05 3.62142170e-05 -5.64347872e+02 3.34963508e+06 3.700000 -3.70616980e-04 
3800 9.38510782e-04 -5.30998691e+05 -5.30998690e+05 4.49995685e-05 -5.64310531e+02 3.34963508e+06 3.800000 3.41391247e-04 
3900 1.34738211e-03 -5.30998692e+05 -5.30998690e+05 6.46040673e-05 -5.64222863e+02 3.34963508e+06 3.900000 -1.81765661e-04 
4000 1.50858578e-03 -5.30998692e+05 -5.30998690e+05 7.23334356e-05 -5.64402833e+02 3.34963508e+06 4.000000 -4.72882290e-05 
4100 1.15229865e-03 -5.30998691e+05 -5.30998690e+05 5.52502359e-05 -5.64198698e+02 3.34963508e+06 4.100000 2.58279623e-04 
4200 7.30520064e-04 -5.30998691e+05 -5.30998690e+05 3.50268620e-05 -5.64349446e+02 3.34963508e+06 4.200000 -3.70616980e-04 
4300 9.25335138e-04 -5.30998691e+05 -5.30998690e+05 4.43678248e-05 -5.64309316e+02 3.34963508e+06 4.300000 3.41391247e-04 
4400 1.64475443e-03 -5.30998692e+05 -5.30998690e+05 7.88624289e-05 -5.64223298e+02 3.34963508e+06 4.400000 -1.81765661e-04 
4500 1.98401658e-03 -5.30998692e+05 -5.30998690e+05 9.51293175e-05 -5.64403425e+02 3.34963508e+06 4.500000 -4.72882290e-05 
4600 1.42931799e-03 -5.30998691e+05 -5.30998690e+05 6.85327157e-05 -5.64199906e+02 3.34963508e+06 4.600000 2.58279623e-04 
4700 6.95231531e-04 -5.30998691e+05 -5.30998690e+05 3.33348529e-05 -5.64350232e+02 3.34963508e+06 4.700000 -3.70616980e-04 
4800 8.62427589e-04 -5.30998691e+05 -5.30998690e+05 4.13515435e-05 -5.64311785e+02 3.34963508e+06 4.800000 3.41391247e-04 
4900 1.83832147e-03 -5.30998692e+05 -5.30998690e+05 8.81435510e-05 -5.64223693e+02 3.34963508e+06 4.900000 -1.81765661e-04 
5000 2.34378559e-03 -5.30998692e+05 -5.30998690e+05 1.12379466e-04 -5.64404280e+02 3.34963508e+06 5.000000 -4.72882290e-05 
5100 1.64131747e-03 -5.30998691e+05 -5.30998690e+05 7.86976337e-05 -5.64200880e+02 3.34963508e+06 5.100000 2.58279623e-04 
5200 6.45497503e-04 -5.30998690e+05 -5.30998690e+05 3.09502136e-05 -5.64351206e+02 3.34963508e+06 5.200000 -3.70616980e-04 
5300 7.54593731e-04 -5.30998690e+05 -5.30998690e+05 3.61811424e-05 -5.64301778e+02 3.34963508e+06 5.300000 3.41391247e-04 
5400 1.91120480e-03 -5.30998691e+05 -5.30998690e+05 9.16381493e-05 -5.64246891e+02 3.34963508e+06 5.400000 -1.81765661e-04 
5500 2.57907253e-03 -5.30998692e+05 -5.30998690e+05 1.23660967e-04 -5.64365972e+02 3.34963508e+06 5.500000 -4.72882290e-05 
5600 1.80506601e-03 -5.30998691e+05 -5.30998690e+05 8.65490235e-05 -5.64241924e+02 3.34963508e+06 5.600000 2.58279623e-04 
5700 6.09974143e-04 -5.30998690e+05 -5.30998690e+05 2.92469450e-05 -5.64326422e+02 3.34963508e+06 5.700000 -3.70616980e-04 
5800 6.65945756e-04 -5.30998690e+05 -5.30998689e+05 3.19306632e-05 -5.64292241e+02 3.34963508e+06 5.800000 3.41391247e-04 
5900 1.96676521e-03 -5.30998691e+05 -5.30998689e+05 9.43021513e-05 -5.64295915e+02 3.34963508e+06 5.900000 -1.81765661e-04 
6000 2.76131022e-03 -5.30998692e+05 -5.30998689e+05 1.32398871e-04 -5.64300452e+02 3.34963508e+06 6.000000 -4.72882290e-05 
Loop time of 112.14 on 20 procs for 6000 steps with 161350 atoms

Performance: 4.623 ns/day, 5.192 hours/ns, 53.504 timesteps/s
91.5% CPU use with 20 MPI tasks x 1 OpenMP threads

MPI task timing breakdown:
Section |  min time  |  avg time  |  max time  |%varavg| %total
---------------------------------------------------------------
Pair    | 44.701     | 53.645     | 56.135     |  40.3 | 47.84
Neigh   | 0          | 0          | 0          |   0.0 |  0.00
Comm    | 0.96018    | 3.0211     | 11.02      | 153.3 |  2.69
Output  | 52.611     | 52.62      | 52.63      |   0.1 | 46.92
Modify  | 0.76205    | 0.95615    | 1.0785     |   7.9 |  0.85
Other   |            | 1.899      |            |       |  1.69

Nlocal:        8067.50 ave        8360 max        6206 min
Histogram: 2 0 0 0 0 0 0 2 0 16
Nghost:        4309.80 ave        4842 max        3343 min
Histogram: 2 0 0 1 0 1 2 11 2 1
Neighs:         0.00000 ave           0 max           0 min
Histogram: 20 0 0 0 0 0 0 0 0 0
FullNghs:      128708.0 ave      133760 max       96928 min
Histogram: 2 0 0 0 0 0 0 2 0 16

Total # of neighbors = 2574156
Ave neighs/atom = 15.953864
Neighbor list builds = 0
Dangerous builds = 0

    next f
    # undo fix, compute.. before switching to the next iteration
    unfix 5
    unfix 4
    unfix 3
ERROR: Could not find fix ID to delete (src/modify.cpp:1063)
Last command:     unfix 3
