    compute kinAt all ke/atom
    dump 1 all custom 100 res/wp1_c.dump.gz id type x y z c_kinAt
    dump_modify 1 format line "%d %d %.7f %.7f %.7f %.6e"
    thermo         100
    thermo_style   custom step ke pe etotal temp press vol time v_amp
WARNING: New thermo_style command, previous thermo_modify settings will be lost (src/output.cpp:689)
    thermo_modify format line "%d %.8e %.8e %.8e %.8e %.8e %.8e %f %.8e"
    #compute chunk all chunk/atom bin/1d x lower $(1/v_Nbin) units reduced # passage en bin 2d

    # output the kin(pos,time)
    fix 4 fixed1 setforce 0.0 0.0 0.0
    fix 5 fixed2 setforce 0.0 0.0 0.0

    # fix FKin all ave/chunk 10 1 10 chunk c_kinAt file res/AverageEkinfreq$fNbin${Nbin}.out



    fix 1 all nve
    fix 2 AtImpulse addforce  v_amp 0.0 0.0  # excitation, the orientation can be changed by changing the component over the different direction
    #fix 3 all recenter INIT INIT INIT # Prevent the center of mass to move from is original position
	run 6000
Per MPI rank memory allocation (min/avg/max) = 4.794 | 4.847 | 4.863 Mbytes
Step KinEng PotEng TotEng Temp Press Volume Time v_amp 
0 0.00000000e+00 -5.23394020e+05 -5.23394020e+05 0.00000000e+00 -5.73231909e+02 3.34959861e+06 0.000000 -5.25324773e-07 
100 6.02789297e-09 -5.23394020e+05 -5.23394020e+05 2.93111895e-10 -5.73231909e+02 3.34959861e+06 0.100000 6.35216624e-06 
200 4.50821806e-08 -5.23394020e+05 -5.23394020e+05 2.19216291e-09 -5.73231908e+02 3.34959861e+06 0.200000 -1.86811465e-05 
300 2.45904125e-07 -5.23394020e+05 -5.23394020e+05 1.19573165e-08 -5.73231385e+02 3.34959861e+06 0.300000 3.26487624e-05 
400 8.49531342e-07 -5.23394020e+05 -5.23394020e+05 4.13092507e-08 -5.73228140e+02 3.34959861e+06 0.400000 -3.05317664e-05 
500 2.08278561e-06 -5.23394020e+05 -5.23394020e+05 1.01277385e-07 -5.73231344e+02 3.34959861e+06 0.500000 -1.29154194e-05 
600 4.87835135e-06 -5.23394020e+05 -5.23394020e+05 2.37214366e-07 -5.73234520e+02 3.34959861e+06 0.600000 1.06181927e-04 
700 1.18209115e-05 -5.23394020e+05 -5.23394020e+05 5.74802801e-07 -5.73212582e+02 3.34959861e+06 0.700000 -2.12314861e-04 
800 2.47952163e-05 -5.23394020e+05 -5.23394020e+05 1.20569043e-06 -5.73265319e+02 3.34959861e+06 0.800000 2.52285160e-04 
900 4.42137274e-05 -5.23394020e+05 -5.23394019e+05 2.14993357e-06 -5.73185089e+02 3.34959861e+06 0.900000 -1.60407633e-04 
1000 7.58814919e-05 -5.23394020e+05 -5.23394019e+05 3.68980803e-06 -5.73259717e+02 3.34959861e+06 1.000000 -4.61349155e-05 
1100 1.13866324e-04 -5.23394020e+05 -5.23394019e+05 5.53685579e-06 -5.73251510e+02 3.34959861e+06 1.100000 2.58279623e-04 
1200 1.22320347e-04 -5.23394019e+05 -5.23394019e+05 5.94794051e-06 -5.73140313e+02 3.34959861e+06 1.200000 -3.70616980e-04 
1300 1.07305937e-04 -5.23394019e+05 -5.23394019e+05 5.21785087e-06 -5.73371044e+02 3.34959861e+06 1.300000 3.41391247e-04 
1400 1.39720452e-04 -5.23394019e+05 -5.23394019e+05 6.79403678e-06 -5.73094182e+02 3.34959861e+06 1.400000 -1.81765661e-04 
1500 2.27481513e-04 -5.23394019e+05 -5.23394019e+05 1.10614999e-05 -5.73304223e+02 3.34959861e+06 1.500000 -4.72882290e-05 
1600 2.78839607e-04 -5.23394019e+05 -5.23394019e+05 1.35588349e-05 -5.73244099e+02 3.34959861e+06 1.600000 2.58279623e-04 
1700 2.46715461e-04 -5.23394019e+05 -5.23394019e+05 1.19967685e-05 -5.73131296e+02 3.34959861e+06 1.700000 -3.70616980e-04 
1800 2.06794376e-04 -5.23394019e+05 -5.23394019e+05 1.00555686e-05 -5.73374915e+02 3.34959861e+06 1.800000 3.41391247e-04 
1900 2.46465089e-04 -5.23394019e+05 -5.23394019e+05 1.19845939e-05 -5.73092393e+02 3.34959861e+06 1.900000 -1.81765661e-04 
2000 3.42316903e-04 -5.23394019e+05 -5.23394019e+05 1.66454774e-05 -5.73307898e+02 3.34959861e+06 2.000000 -4.72882290e-05 
2100 3.93100849e-04 -5.23394019e+05 -5.23394019e+05 1.91148940e-05 -5.73241646e+02 3.34959861e+06 2.100000 2.58279623e-04 
2200 3.59605019e-04 -5.23394019e+05 -5.23394019e+05 1.74861281e-05 -5.73133517e+02 3.34959861e+06 2.200000 -3.70616980e-04 
2300 3.19101430e-04 -5.23394019e+05 -5.23394019e+05 1.55166034e-05 -5.73375659e+02 3.34959861e+06 2.300000 3.41391247e-04 
2400 3.58745916e-04 -5.23394019e+05 -5.23394019e+05 1.74443534e-05 -5.73091101e+02 3.34959861e+06 2.400000 -1.81765661e-04 
2500 4.55011655e-04 -5.23394019e+05 -5.23394019e+05 2.21253644e-05 -5.73310286e+02 3.34959861e+06 2.500000 -4.72882290e-05 
2600 5.06029401e-04 -5.23394019e+05 -5.23394019e+05 2.46061497e-05 -5.73240143e+02 3.34959861e+06 2.600000 2.58279623e-04 
2700 4.72467553e-04 -5.23394019e+05 -5.23394019e+05 2.29741737e-05 -5.73134355e+02 3.34959861e+06 2.700000 -3.70616980e-04 
2800 4.31611261e-04 -5.23394019e+05 -5.23394019e+05 2.09874985e-05 -5.73376407e+02 3.34959861e+06 2.800000 3.41391247e-04 
2900 4.70389416e-04 -5.23394019e+05 -5.23394019e+05 2.28731223e-05 -5.73089803e+02 3.34959861e+06 2.900000 -1.81765661e-04 
3000 5.66841276e-04 -5.23394019e+05 -5.23394018e+05 2.75631836e-05 -5.73312689e+02 3.34959861e+06 3.000000 -4.72882290e-05 
3100 6.24284091e-04 -5.23394019e+05 -5.23394018e+05 3.03563939e-05 -5.73238527e+02 3.34959861e+06 3.100000 2.58279623e-04 
3200 5.98933104e-04 -5.23394019e+05 -5.23394018e+05 2.91236786e-05 -5.73135542e+02 3.34959861e+06 3.200000 -3.70616980e-04 
3300 5.39187067e-04 -5.23394019e+05 -5.23394018e+05 2.62184720e-05 -5.73377190e+02 3.34959861e+06 3.300000 3.41391247e-04 
3400 5.34541068e-04 -5.23394019e+05 -5.23394018e+05 2.59925560e-05 -5.73088063e+02 3.34959861e+06 3.400000 -1.81765661e-04 
3500 6.52829110e-04 -5.23394019e+05 -5.23394018e+05 3.17444219e-05 -5.73314706e+02 3.34959861e+06 3.500000 -4.72882290e-05 
3600 8.12754233e-04 -5.23394019e+05 -5.23394018e+05 3.95209296e-05 -5.73237426e+02 3.34959861e+06 3.600000 2.58279623e-04 
3700 7.85680559e-04 -5.23394019e+05 -5.23394018e+05 3.82044470e-05 -5.73135426e+02 3.34959861e+06 3.700000 -3.70616980e-04 
3800 5.67210572e-04 -5.23394019e+05 -5.23394018e+05 2.75811410e-05 -5.73378755e+02 3.34959861e+06 3.800000 3.41391247e-04 
3900 5.23432890e-04 -5.23394019e+05 -5.23394018e+05 2.54524105e-05 -5.73086565e+02 3.34959861e+06 3.900000 -1.81765661e-04 
4000 8.28636626e-04 -5.23394019e+05 -5.23394018e+05 4.02932257e-05 -5.73315870e+02 3.34959861e+06 4.000000 -4.72882290e-05 
4100 1.08790986e-03 -5.23394019e+05 -5.23394018e+05 5.29006276e-05 -5.73237518e+02 3.34959861e+06 4.100000 2.58279623e-04 
4200 9.03081464e-04 -5.23394019e+05 -5.23394018e+05 4.39131751e-05 -5.73134495e+02 3.34959861e+06 4.200000 -3.70616980e-04 
4300 5.27959411e-04 -5.23394018e+05 -5.23394018e+05 2.56725168e-05 -5.73379981e+02 3.34959861e+06 4.300000 3.41391247e-04 
4400 5.55501262e-04 -5.23394018e+05 -5.23394018e+05 2.70117649e-05 -5.73085603e+02 3.34959861e+06 4.400000 -1.81765661e-04 
4500 1.03761070e-03 -5.23394019e+05 -5.23394018e+05 5.04547842e-05 -5.73316410e+02 3.34959861e+06 4.500000 -4.72882290e-05 
4600 1.33328093e-03 -5.23394019e+05 -5.23394018e+05 6.48320240e-05 -5.73237922e+02 3.34959861e+06 4.600000 2.58279623e-04 
4700 1.00240379e-03 -5.23394019e+05 -5.23394018e+05 4.87428154e-05 -5.73133835e+02 3.34959861e+06 4.700000 -3.70616980e-04 
4800 5.00785277e-04 -5.23394018e+05 -5.23394018e+05 2.43511493e-05 -5.73380831e+02 3.34959861e+06 4.800000 3.41391247e-04 
4900 5.95207200e-04 -5.23394018e+05 -5.23394018e+05 2.89425030e-05 -5.73084981e+02 3.34959861e+06 4.900000 -1.81765661e-04 
5000 1.24532525e-03 -5.23394019e+05 -5.23394018e+05 6.05550974e-05 -5.73316821e+02 3.34959861e+06 5.000000 -4.72882290e-05 
5100 1.57786078e-03 -5.23394019e+05 -5.23394018e+05 7.67249461e-05 -5.73239475e+02 3.34959861e+06 5.100000 2.58279623e-04 
5200 1.10183295e-03 -5.23394019e+05 -5.23394018e+05 5.35776507e-05 -5.73135815e+02 3.34959861e+06 5.200000 -3.70616980e-04 
5300 4.74046042e-04 -5.23394018e+05 -5.23394017e+05 2.30509292e-05 -5.73382457e+02 3.34959861e+06 5.300000 3.41391247e-04 
5400 6.36135301e-04 -5.23394018e+05 -5.23394017e+05 3.09326700e-05 -5.73087417e+02 3.34959861e+06 5.400000 -1.81765661e-04 
5500 1.45319651e-03 -5.23394019e+05 -5.23394017e+05 7.06630300e-05 -5.73316568e+02 3.34959861e+06 5.500000 -4.72882290e-05 
5600 1.81746621e-03 -5.23394019e+05 -5.23394017e+05 8.83759831e-05 -5.73244236e+02 3.34959861e+06 5.600000 2.58279623e-04 
5700 1.19705372e-03 -5.23394018e+05 -5.23394017e+05 5.82078491e-05 -5.73129185e+02 3.34959861e+06 5.700000 -3.70616980e-04 
5800 4.68693466e-04 -5.23394018e+05 -5.23394017e+05 2.27906552e-05 -5.73391545e+02 3.34959861e+06 5.800000 3.41391247e-04 
5900 7.38922766e-04 -5.23394018e+05 -5.23394017e+05 3.59308059e-05 -5.73086810e+02 3.34959861e+06 5.900000 -1.81765661e-04 
6000 1.72356303e-03 -5.23394019e+05 -5.23394017e+05 8.38098533e-05 -5.73299655e+02 3.34959861e+06 6.000000 -4.72882290e-05 
Loop time of 75.2477 on 40 procs for 6000 steps with 159100 atoms

Performance: 6.889 ns/day, 3.484 hours/ns, 79.737 timesteps/s
93.8% CPU use with 40 MPI tasks x 1 OpenMP threads

MPI task timing breakdown:
Section |  min time  |  avg time  |  max time  |%varavg| %total
---------------------------------------------------------------
Pair    | 15.404     | 22.006     | 24.145     |  39.2 | 29.24
Neigh   | 0          | 0          | 0          |   0.0 |  0.00
Comm    | 0.4498     | 2.1161     | 8.7835     | 125.9 |  2.81
Output  | 49.547     | 49.554     | 49.562     |   0.1 | 65.85
Modify  | 0.31897    | 0.39536    | 0.42445    |   3.6 |  0.53
Other   |            | 1.176      |            |       |  1.56

Nlocal:        3977.50 ave        4290 max        2369 min
Histogram: 2 0 2 0 0 0 1 3 6 26
Nghost:        2561.53 ave        2900 max        1770 min
Histogram: 2 0 2 1 0 2 12 6 7 8
Neighs:         0.00000 ave           0 max           0 min
Histogram: 40 0 0 0 0 0 0 0 0 0
FullNghs:      63411.0 ave       68640 max       36369 min
Histogram: 2 0 2 0 0 0 1 3 6 26

Total # of neighbors = 2536440
Ave neighs/atom = 15.942426
Neighbor list builds = 0
Dangerous builds = 0

    next f
    # undo fix, compute.. before switching to the next iteration
    unfix 5
    unfix 4
    unfix 3
ERROR: Could not find fix ID to delete (src/modify.cpp:1063)
Last command:     unfix 3
