    compute kinAt all ke/atom
    dump 1 all custom 100 res/wp2_p.dump.gz id type x y z c_kinAt
    dump_modify 1 format line "%d %d %.7f %.7f %.7f %.6e"
    thermo         100
    thermo_style   custom step ke pe etotal temp press vol time v_amp
WARNING: New thermo_style command, previous thermo_modify settings will be lost (src/output.cpp:689)
    thermo_modify format line "%d %.8e %.8e %.8e %.8e %.8e %.8e %f %.8e"


    # output the kin(pos,time)
    fix 4 fixed1 setforce 0.0 0.0 0.0
    fix 5 fixed2 setforce 0.0 0.0 0.0





    fix 1 all nve
    fix 2 AtImpulse addforce  v_amp 0.0 0.0  # excitation, the orientation can be changed by changing the component over the different direction
    #fix 3 all recenter INIT INIT INIT # Prevent the center of mass to move from is original position
    run 6000
Per MPI rank memory allocation (min/avg/max) = 3.520 | 4.583 | 4.616 Mbytes
Step KinEng PotEng TotEng Temp Press Volume Time v_amp 
0 0.00000000e+00 -4.97204397e+05 -4.97204397e+05 0.00000000e+00 -5.22990496e+02 3.34911206e+06 0.000000 -5.25324773e-07 
100 6.02786077e-09 -4.97204397e+05 -4.97204397e+05 3.08282333e-10 -5.22990496e+02 3.34911206e+06 0.100000 6.35216624e-06 
200 4.50820789e-08 -4.97204397e+05 -4.97204397e+05 2.30562865e-09 -5.22990495e+02 3.34911206e+06 0.200000 -1.86811465e-05 
300 2.45909233e-07 -4.97204397e+05 -4.97204397e+05 1.25765135e-08 -5.22989976e+02 3.34911206e+06 0.300000 3.26487624e-05 
400 8.49933588e-07 -4.97204397e+05 -4.97204397e+05 4.34680760e-08 -5.22986732e+02 3.34911206e+06 0.400000 -3.05317664e-05 
500 2.08848787e-06 -4.97204397e+05 -4.97204397e+05 1.06811345e-07 -5.22989708e+02 3.34911206e+06 0.500000 -1.29154194e-05 
600 4.87855445e-06 -4.97204397e+05 -4.97204397e+05 2.49503465e-07 -5.22993692e+02 3.34911206e+06 0.600000 1.06181927e-04 
700 1.17125934e-05 -4.97204397e+05 -4.97204397e+05 5.99016094e-07 -5.22970219e+02 3.34911206e+06 0.700000 -2.12314861e-04 
800 2.45926013e-05 -4.97204397e+05 -4.97204397e+05 1.25773717e-06 -5.23024682e+02 3.34911206e+06 0.800000 2.52285160e-04 
900 4.45287136e-05 -4.97204397e+05 -4.97204397e+05 2.27732794e-06 -5.22944159e+02 3.34911206e+06 0.900000 -1.60407633e-04 
1000 7.68633197e-05 -4.97204397e+05 -4.97204397e+05 3.93101375e-06 -5.23015103e+02 3.34911206e+06 1.000000 -4.61349155e-05 
1100 1.12970042e-04 -4.97204397e+05 -4.97204397e+05 5.77761653e-06 -5.23015189e+02 3.34911206e+06 1.100000 2.57881351e-04 
1200 1.16633535e-04 -4.97204397e+05 -4.97204397e+05 5.96497824e-06 -5.22892838e+02 3.34911206e+06 1.200000 -3.50588641e-04 
1300 9.68100356e-05 -4.97204397e+05 -4.97204397e+05 4.95114682e-06 -5.23132088e+02 3.34911206e+06 1.300000 2.83241751e-04 
1400 1.23886119e-04 -4.97204397e+05 -4.97204397e+05 6.33589651e-06 -5.22854209e+02 3.34911206e+06 1.400000 -1.22444339e-04 
1500 1.86888885e-04 -4.97204397e+05 -4.97204397e+05 9.55804120e-06 -5.23059512e+02 3.34911206e+06 1.500000 -2.39437146e-05 
1600 1.97956929e-04 -4.97204397e+05 -4.97204397e+05 1.01240932e-05 -5.23001397e+02 3.34911206e+06 1.600000 9.09975817e-05 
1700 1.61433327e-04 -4.97204397e+05 -4.97204397e+05 8.25616995e-06 -5.22919367e+02 3.34911206e+06 1.700000 -8.41115958e-05 
1800 1.45164049e-04 -4.97204397e+05 -4.97204397e+05 7.42411170e-06 -5.23070616e+02 3.34911206e+06 1.800000 4.62022811e-05 
1900 1.55028004e-04 -4.97204397e+05 -4.97204397e+05 7.92858308e-06 -5.22930383e+02 3.34911206e+06 1.900000 -1.35797876e-05 
2000 1.62139957e-04 -4.97204397e+05 -4.97204397e+05 8.29230902e-06 -5.23016428e+02 3.34911206e+06 2.000000 -1.80548510e-06 
2100 1.61489505e-04 -4.97204397e+05 -4.97204397e+05 8.25904303e-06 -5.22984615e+02 3.34911206e+06 2.100000 4.66530830e-06 
2200 1.60079273e-04 -4.97204397e+05 -4.97204397e+05 8.18691965e-06 -5.22984166e+02 3.34911206e+06 2.200000 -2.93193600e-06 
2300 1.59888847e-04 -4.97204397e+05 -4.97204397e+05 8.17718073e-06 -5.22996326e+02 3.34911206e+06 2.300000 1.09498999e-06 
2400 1.61419772e-04 -4.97204397e+05 -4.97204397e+05 8.25547667e-06 -5.22982994e+02 3.34911206e+06 2.400000 -2.18820408e-07 
2500 1.64005072e-04 -4.97204397e+05 -4.97204397e+05 8.38769644e-06 -5.22994729e+02 3.34911206e+06 2.500000 -1.97804821e-08 
2600 1.57018341e-04 -4.97204397e+05 -4.97204397e+05 8.03037469e-06 -5.22985411e+02 3.34911206e+06 2.600000 3.47513299e-08 
2700 1.35751194e-04 -4.97204397e+05 -4.97204397e+05 6.94271094e-06 -5.22991335e+02 3.34911206e+06 2.700000 -1.48488795e-08 
2800 1.42638705e-04 -4.97204397e+05 -4.97204397e+05 7.29495827e-06 -5.22990059e+02 3.34911206e+06 2.800000 3.77048712e-09 
2900 2.04961528e-04 -4.97204397e+05 -4.97204397e+05 1.04823288e-05 -5.22986723e+02 3.34911206e+06 2.900000 -5.12298699e-10 
3000 2.16286736e-04 -4.97204397e+05 -4.97204397e+05 1.10615328e-05 -5.22993203e+02 3.34911206e+06 3.000000 -3.14862122e-11 
3100 1.15010911e-04 -4.97204397e+05 -4.97204397e+05 5.88199254e-06 -5.22986851e+02 3.34911206e+06 3.100000 3.76099791e-11 
3200 9.42858041e-05 -4.97204397e+05 -4.97204397e+05 4.82205028e-06 -5.22990308e+02 3.34911206e+06 3.200000 -1.09263086e-11 
3300 2.24092099e-04 -4.97204397e+05 -4.97204397e+05 1.14607218e-05 -5.22991320e+02 3.34911206e+06 3.300000 1.88636338e-12 
3400 2.35840236e-04 -4.97204397e+05 -4.97204397e+05 1.20615557e-05 -5.22986393e+02 3.34911206e+06 3.400000 -1.74260624e-13 
3500 9.85596985e-05 -4.97204397e+05 -4.97204397e+05 5.04062967e-06 -5.22992660e+02 3.34911206e+06 3.500000 -7.28189726e-15 
3600 9.48664668e-05 -4.97204397e+05 -4.97204397e+05 4.85174706e-06 -5.22988001e+02 3.34911206e+06 3.600000 5.91391853e-15 
3700 1.97262191e-04 -4.97204397e+05 -4.97204397e+05 1.00885622e-05 -5.22989146e+02 3.34911206e+06 3.700000 -1.16813712e-15 
3800 1.87898899e-04 -4.97204397e+05 -4.97204397e+05 9.60969626e-06 -5.22992210e+02 3.34911206e+06 3.800000 1.37117800e-16 
3900 1.29587508e-04 -4.97204397e+05 -4.97204397e+05 6.62748208e-06 -5.22986802e+02 3.34911206e+06 3.900000 -8.61223479e-18 
4000 1.44516749e-04 -4.97204397e+05 -4.97204397e+05 7.39100693e-06 -5.22992608e+02 3.34911206e+06 4.000000 -2.44686078e-19 
4100 1.74772305e-04 -4.97204397e+05 -4.97204397e+05 8.93836407e-06 -5.22991266e+02 3.34911206e+06 4.100000 1.35110209e-19 
4200 1.68642935e-04 -4.97204397e+05 -4.97204397e+05 8.62489026e-06 -5.22990195e+02 3.34911206e+06 4.200000 -1.81449080e-20 
4300 1.57172547e-04 -4.97204397e+05 -4.97204397e+05 8.03826125e-06 -5.22994384e+02 3.34911206e+06 4.300000 1.44811449e-21 
4400 1.57743844e-04 -4.97204397e+05 -4.97204397e+05 8.06747901e-06 -5.22988132e+02 3.34911206e+06 4.400000 -6.18405067e-23 
4500 1.60363203e-04 -4.97204397e+05 -4.97204397e+05 8.20144066e-06 -5.22995912e+02 3.34911206e+06 4.500000 -1.19457811e-24 
4600 1.60189082e-04 -4.97204397e+05 -4.97204397e+05 8.19253562e-06 -5.22984961e+02 3.34911206e+06 4.600000 4.48478447e-25 
4700 1.58976633e-04 -4.97204397e+05 -4.97204397e+05 8.13052747e-06 -5.23007643e+02 3.34911206e+06 4.700000 -4.09502255e-26 
4800 1.58022633e-04 -4.97204397e+05 -4.97204397e+05 8.08173710e-06 -5.22969241e+02 3.34911206e+06 4.800000 2.22204343e-27 
4900 1.60647153e-04 -4.97204397e+05 -4.97204397e+05 8.21596270e-06 -5.23019180e+02 3.34911206e+06 4.900000 -6.45165002e-29 
5000 1.71064351e-04 -4.97204397e+05 -4.97204397e+05 8.74872852e-06 -5.22983005e+02 3.34911206e+06 5.000000 -8.47345312e-31 
5100 1.75068393e-04 -4.97204397e+05 -4.97204397e+05 8.95350688e-06 -5.22960501e+02 3.34911206e+06 5.100000 2.16289567e-31 
5200 1.46854128e-04 -4.97204397e+05 -4.97204397e+05 7.51054729e-06 -5.23080862e+02 3.34911206e+06 5.200000 -1.34276004e-32 
5300 1.19254227e-04 -4.97204397e+05 -4.97204397e+05 6.09900807e-06 -5.22867990e+02 3.34911206e+06 5.300000 4.95384906e-34 
5400 1.59861081e-04 -4.97204397e+05 -4.97204397e+05 8.17576067e-06 -5.23103413e+02 3.34911206e+06 5.400000 -9.77933095e-36 
5500 2.05115346e-04 -4.97204397e+05 -4.97204397e+05 1.04901955e-05 -5.22949080e+02 3.34911206e+06 5.500000 -8.73266683e-38 
5600 1.46840150e-04 -4.97204397e+05 -4.97204397e+05 7.50983240e-06 -5.22954120e+02 3.34911206e+06 5.600000 1.51554958e-38 
5700 9.91502215e-05 -4.97204397e+05 -4.97204397e+05 5.07083074e-06 -5.23071959e+02 3.34911206e+06 5.700000 -6.39706998e-40 
5800 1.79464083e-04 -4.97204397e+05 -4.97204397e+05 9.17831523e-06 -5.22939249e+02 3.34911206e+06 5.800000 1.60462509e-41 
5900 2.24525030e-04 -4.97204397e+05 -4.97204397e+05 1.14828631e-05 -5.22973801e+02 3.34911206e+06 5.900000 -2.15371419e-43 
6000 1.50296974e-04 -4.97204397e+05 -4.97204397e+05 7.68662442e-06 -5.23069180e+02 3.34911206e+06 6.000000 -1.30759706e-45 
Loop time of 64.7683 on 100 procs for 6000 steps with 151270 atoms

Performance: 8.004 ns/day, 2.999 hours/ns, 92.638 timesteps/s
96.4% CPU use with 100 MPI tasks x 1 OpenMP threads

MPI task timing breakdown:
Section |  min time  |  avg time  |  max time  |%varavg| %total
---------------------------------------------------------------
Pair    | 0.0012481  | 10.17      | 11.72      |  68.8 | 15.70
Neigh   | 0          | 0          | 0          |   0.0 |  0.00
Comm    | 0.003546   | 3.5688     | 8.0252     |  99.8 |  5.51
Output  | 43.429     | 43.48      | 43.624     |   0.4 | 67.13
Modify  | 0.12104    | 0.28214    | 0.33293    |   7.0 |  0.44
Other   |            | 7.268      |            |       | 11.22

Nlocal:        1512.70 ave        1705 max           0 min
Histogram: 2 0 4 0 4 0 1 7 2 80
Nghost:        1397.40 ave        1634 max           0 min
Histogram: 2 0 0 4 4 1 1 6 10 72
Neighs:         0.00000 ave           0 max           0 min
Histogram: 100 0 0 0 0 0 0 0 0 0
FullNghs:      24079.6 ave       27280 max           0 min
Histogram: 2 0 4 0 4 0 4 4 2 80

Total # of neighbors = 2407964
Ave neighs/atom = 15.918318
Neighbor list builds = 0
Dangerous builds = 0

    next f
    # undo fix, compute.. before switching to the next iteration
    unfix 5
    unfix 4
    unfix 3
ERROR: Could not find fix ID to delete (src/modify.cpp:1063)
Last command:     unfix 3
