    compute kinAt all ke/atom
    dump 1 all custom 100 res/wp2_p.dump.gz id type x y z c_kinAt
    dump_modify 1 format line "%d %d %.7f %.7f %.7f %.6e"
    thermo         100
    thermo_style   custom step ke pe etotal temp press vol time v_amp
WARNING: New thermo_style command, previous thermo_modify settings will be lost (src/output.cpp:689)
    thermo_modify format line "%d %.8e %.8e %.8e %.8e %.8e %.8e %f %.8e"


    # output the kin(pos,time)
    fix 4 fixed1 setforce 0.0 0.0 0.0
    fix 5 fixed2 setforce 0.0 0.0 0.0





    fix 1 all nve
    fix 2 AtImpulse addforce  v_amp 0.0 0.0  # excitation, the orientation can be changed by changing the component over the different direction
    #fix 3 all recenter INIT INIT INIT # Prevent the center of mass to move from is original position
    run 6000
Per MPI rank memory allocation (min/avg/max) = 3.522 | 4.586 | 4.616 Mbytes
Step KinEng PotEng TotEng Temp Press Volume Time v_amp 
0 0.00000000e+00 -5.23417015e+05 -5.23417015e+05 0.00000000e+00 -5.44374627e+02 3.34918144e+06 0.000000 -5.25324773e-07 
100 6.02782565e-09 -5.23417015e+05 -5.23417015e+05 2.93108622e-10 -5.44374627e+02 3.34918144e+06 0.100000 6.35216624e-06 
200 4.50812240e-08 -5.23417015e+05 -5.23417015e+05 2.19211639e-09 -5.44374627e+02 3.34918144e+06 0.200000 -1.86811465e-05 
300 2.45644418e-07 -5.23417015e+05 -5.23417015e+05 1.19446880e-08 -5.44374627e+02 3.34918144e+06 0.300000 3.26487624e-05 
400 8.49453799e-07 -5.23417015e+05 -5.23417015e+05 4.13054801e-08 -5.44374627e+02 3.34918144e+06 0.400000 -3.05317664e-05 
500 2.03714992e-06 -5.23417015e+05 -5.23417015e+05 9.90583074e-08 -5.44374626e+02 3.34918144e+06 0.500000 -1.29154194e-05 
600 4.60425063e-06 -5.23417015e+05 -5.23417015e+05 2.23885964e-07 -5.44374623e+02 3.34918144e+06 0.600000 1.06181927e-04 
700 1.19692821e-05 -5.23417015e+05 -5.23417015e+05 5.82017461e-07 -5.44374616e+02 3.34918144e+06 0.700000 -2.12314861e-04 
800 2.78973935e-05 -5.23417015e+05 -5.23417015e+05 1.35653667e-06 -5.44374285e+02 3.34918144e+06 0.800000 2.52285160e-04 
900 4.90910546e-05 -5.23417015e+05 -5.23417015e+05 2.38709813e-06 -5.44371188e+02 3.34918144e+06 0.900000 -1.60407633e-04 
1000 6.95774920e-05 -5.23417015e+05 -5.23417015e+05 3.38327018e-06 -5.44376387e+02 3.34918144e+06 1.000000 -4.61349155e-05 
1100 9.33965546e-05 -5.23417015e+05 -5.23417015e+05 4.54149423e-06 -5.44367061e+02 3.34918144e+06 1.100000 2.57881351e-04 
1200 1.25106326e-04 -5.23417015e+05 -5.23417014e+05 6.08341134e-06 -5.44376206e+02 3.34918144e+06 1.200000 -3.50588641e-04 
1300 1.54828537e-04 -5.23417015e+05 -5.23417014e+05 7.52868142e-06 -5.44381017e+02 3.34918144e+06 1.300000 2.83241751e-04 
1400 1.69091983e-04 -5.23417015e+05 -5.23417014e+05 8.22225474e-06 -5.44340213e+02 3.34918144e+06 1.400000 -1.22444339e-04 
1500 1.66417864e-04 -5.23417015e+05 -5.23417014e+05 8.09222322e-06 -5.44434584e+02 3.34918144e+06 1.500000 -2.39437146e-05 
1600 1.68730488e-04 -5.23417015e+05 -5.23417014e+05 8.20467674e-06 -5.44298345e+02 3.34918144e+06 1.600000 9.09975817e-05 
1700 2.03617797e-04 -5.23417015e+05 -5.23417014e+05 9.90110452e-06 -5.44423254e+02 3.34918144e+06 1.700000 -8.41115958e-05 
1800 2.34406623e-04 -5.23417015e+05 -5.23417014e+05 1.13982398e-05 -5.44389265e+02 3.34918144e+06 1.800000 4.62022811e-05 
1900 1.92342828e-04 -5.23417015e+05 -5.23417014e+05 9.35284868e-06 -5.44278170e+02 3.34918144e+06 1.900000 -1.35797876e-05 
2000 1.28373625e-04 -5.23417014e+05 -5.23417014e+05 6.24228677e-06 -5.44516932e+02 3.34918144e+06 2.000000 -1.80548510e-06 
2100 1.46883607e-04 -5.23417014e+05 -5.23417014e+05 7.14235184e-06 -5.44239961e+02 3.34918144e+06 2.100000 4.66530830e-06 
2200 2.06816795e-04 -5.23417015e+05 -5.23417014e+05 1.00566588e-05 -5.44447920e+02 3.34918144e+06 2.200000 -2.93193600e-06 
2300 2.14751510e-04 -5.23417015e+05 -5.23417014e+05 1.04424917e-05 -5.44367595e+02 3.34918144e+06 2.300000 1.09498999e-06 
2400 1.90009897e-04 -5.23417015e+05 -5.23417014e+05 9.23940775e-06 -5.44335553e+02 3.34918144e+06 2.400000 -2.18820408e-07 
2500 1.83065670e-04 -5.23417015e+05 -5.23417014e+05 8.90173828e-06 -5.44421049e+02 3.34918144e+06 2.500000 -1.97804821e-08 
2600 1.80967255e-04 -5.23417015e+05 -5.23417014e+05 8.79970088e-06 -5.44338770e+02 3.34918144e+06 2.600000 3.47513299e-08 
2700 1.61605447e-04 -5.23417015e+05 -5.23417014e+05 7.85821497e-06 -5.44391721e+02 3.34918144e+06 2.700000 -1.48488795e-08 
2800 1.64584306e-04 -5.23417015e+05 -5.23417014e+05 8.00306475e-06 -5.44367193e+02 3.34918144e+06 2.800000 3.77048712e-09 
2900 2.28643843e-04 -5.23417015e+05 -5.23417014e+05 1.11180193e-05 -5.44373866e+02 3.34918144e+06 2.900000 -5.12298699e-10 
3000 2.65681874e-04 -5.23417015e+05 -5.23417014e+05 1.29190279e-05 -5.44376300e+02 3.34918144e+06 3.000000 -3.14862122e-11 
3100 1.84633215e-04 -5.23417015e+05 -5.23417014e+05 8.97796158e-06 -5.44369691e+02 3.34918144e+06 3.100000 3.76099791e-11 
3200 1.02425718e-04 -5.23417014e+05 -5.23417014e+05 4.98054571e-06 -5.44377937e+02 3.34918144e+06 3.200000 -1.09263086e-11 
3300 1.44080031e-04 -5.23417014e+05 -5.23417014e+05 7.00602534e-06 -5.44370977e+02 3.34918144e+06 3.300000 1.88636338e-12 
3400 2.18708636e-04 -5.23417015e+05 -5.23417014e+05 1.06349106e-05 -5.44374685e+02 3.34918144e+06 3.400000 -1.74260624e-13 
3500 2.30683770e-04 -5.23417015e+05 -5.23417014e+05 1.12172126e-05 -5.44375347e+02 3.34918144e+06 3.500000 -7.28189726e-15 
3600 2.01074499e-04 -5.23417015e+05 -5.23417014e+05 9.77743433e-06 -5.44370848e+02 3.34918144e+06 3.600000 5.91391853e-15 
3700 1.39739664e-04 -5.23417014e+05 -5.23417014e+05 6.79497096e-06 -5.44377535e+02 3.34918144e+06 3.700000 -1.16813712e-15 
3800 9.88414082e-05 -5.23417014e+05 -5.23417014e+05 4.80625530e-06 -5.44370983e+02 3.34918144e+06 3.800000 1.37117800e-16 
3900 1.84631186e-04 -5.23417015e+05 -5.23417014e+05 8.97786295e-06 -5.44374967e+02 3.34918144e+06 3.900000 -8.61223479e-18 
4000 3.05624018e-04 -5.23417015e+05 -5.23417014e+05 1.48612518e-05 -5.44375538e+02 3.34918144e+06 4.000000 -2.44686078e-19 
4100 2.61297347e-04 -5.23417015e+05 -5.23417014e+05 1.27058263e-05 -5.44370598e+02 3.34918144e+06 4.100000 1.35110209e-19 
4200 1.32269657e-04 -5.23417014e+05 -5.23417014e+05 6.43173495e-06 -5.44378225e+02 3.34918144e+06 4.200000 -1.81449080e-20 
4300 1.19727007e-04 -5.23417014e+05 -5.23417014e+05 5.82183693e-06 -5.44371377e+02 3.34918144e+06 4.300000 1.44811449e-21 
4400 1.85434808e-04 -5.23417015e+05 -5.23417014e+05 9.01693979e-06 -5.44374307e+02 3.34918144e+06 4.400000 -6.18405067e-23 
4500 2.15594387e-04 -5.23417015e+05 -5.23417014e+05 1.04834773e-05 -5.44376878e+02 3.34918144e+06 4.500000 -1.19457811e-24 
4600 2.09756820e-04 -5.23417015e+05 -5.23417014e+05 1.01996202e-05 -5.44372026e+02 3.34918144e+06 4.600000 4.48478447e-25 
4700 1.82018999e-04 -5.23417015e+05 -5.23417014e+05 8.85084292e-06 -5.44379621e+02 3.34918144e+06 4.700000 -4.09502255e-26 
4800 1.48616238e-04 -5.23417014e+05 -5.23417014e+05 7.22660265e-06 -5.44374115e+02 3.34918144e+06 4.800000 2.22204343e-27 
4900 1.61160271e-04 -5.23417015e+05 -5.23417014e+05 7.83656788e-06 -5.44375941e+02 3.34918144e+06 4.900000 -6.45165002e-29 
5000 2.07427129e-04 -5.23417015e+05 -5.23417014e+05 1.00863369e-05 -5.44377195e+02 3.34918144e+06 5.000000 -8.47345312e-31 
5100 2.14832365e-04 -5.23417015e+05 -5.23417014e+05 1.04464233e-05 -5.44374510e+02 3.34918144e+06 5.100000 2.16289567e-31 
5200 1.86163255e-04 -5.23417015e+05 -5.23417014e+05 9.05236123e-06 -5.44379746e+02 3.34918144e+06 5.200000 -1.34276004e-32 
5300 1.75113782e-04 -5.23417015e+05 -5.23417014e+05 8.51507033e-06 -5.44363126e+02 3.34918144e+06 5.300000 4.95384906e-34 
5400 1.81649622e-04 -5.23417015e+05 -5.23417014e+05 8.83288161e-06 -5.44404956e+02 3.34918144e+06 5.400000 -9.77933095e-36 
5500 1.81288133e-04 -5.23417015e+05 -5.23417014e+05 8.81530385e-06 -5.44327482e+02 3.34918144e+06 5.500000 -8.73266683e-38 
5600 1.83083931e-04 -5.23417015e+05 -5.23417014e+05 8.90262620e-06 -5.44430741e+02 3.34918144e+06 5.600000 1.51554958e-38 
5700 2.06391726e-04 -5.23417015e+05 -5.23417014e+05 1.00359894e-05 -5.44343386e+02 3.34918144e+06 5.700000 -6.39706998e-40 
5800 2.23162596e-04 -5.23417015e+05 -5.23417014e+05 1.08514886e-05 -5.44351738e+02 3.34918144e+06 5.800000 1.60462509e-41 
5900 1.82243515e-04 -5.23417015e+05 -5.23417014e+05 8.86176024e-06 -5.44471145e+02 3.34918144e+06 5.900000 -2.15371419e-43 
6000 1.26300452e-04 -5.23417014e+05 -5.23417014e+05 6.14147682e-06 -5.44234108e+02 3.34918144e+06 6.000000 -1.30759706e-45 
Loop time of 68.1617 on 100 procs for 6000 steps with 159100 atoms

Performance: 7.605 ns/day, 3.156 hours/ns, 88.026 timesteps/s
95.9% CPU use with 100 MPI tasks x 1 OpenMP threads

MPI task timing breakdown:
Section |  min time  |  avg time  |  max time  |%varavg| %total
---------------------------------------------------------------
Pair    | 0.0016985  | 10.64      | 12.342     |  57.5 | 15.61
Neigh   | 0          | 0          | 0          |   0.0 |  0.00
Comm    | 1.2878     | 4.733      | 14.462     | 114.7 |  6.94
Output  | 44.57      | 44.609     | 44.664     |   0.3 | 65.45
Modify  | 0.13144    | 0.28947    | 0.33817    |   5.5 |  0.42
Other   |            | 7.89       |            |       | 11.58

Nlocal:        1591.00 ave        1705 max           0 min
Histogram: 3 0 0 0 0 0 0 5 2 90
Nghost:        1449.21 ave        1626 max         236 min
Histogram: 2 0 0 0 1 4 0 6 11 76
Neighs:         0.00000 ave           0 max           0 min
Histogram: 100 0 0 0 0 0 0 0 0 0
FullNghs:      25363.8 ave       27280 max           0 min
Histogram: 3 0 0 0 0 0 4 1 3 89

Total # of neighbors = 2536384
Ave neighs/atom = 15.942074
Neighbor list builds = 0
Dangerous builds = 0

    next f
    # undo fix, compute.. before switching to the next iteration
    unfix 5
    unfix 4
    unfix 3
ERROR: Could not find fix ID to delete (src/modify.cpp:1063)
Last command:     unfix 3
