    compute kinAt all ke/atom
    dump 1 all custom 100 res/wp2_c.dump.gz id type x y z c_kinAt
    dump_modify 1 format line "%d %d %.7f %.7f %.7f %.6e"
    thermo         100
    thermo_style   custom step ke pe etotal temp press vol time v_amp
WARNING: New thermo_style command, previous thermo_modify settings will be lost (src/output.cpp:689)
    thermo_modify format line "%d %.8e %.8e %.8e %.8e %.8e %.8e %f %.8e"
    #compute chunk all chunk/atom bin/1d x lower $(1/v_Nbin) units reduced # passage en bin 2d

    # output the kin(pos,time)
    fix 4 fixed1 setforce 0.0 0.0 0.0
    fix 5 fixed2 setforce 0.0 0.0 0.0

    # fix FKin all ave/chunk 10 1 10 chunk c_kinAt file res/AverageEkinfreq$fNbin${Nbin}.out



    fix 1 all nve
    fix 2 AtImpulse addforce  v_amp 0.0 0.0  # excitation, the orientation can be changed by changing the component over the different direction
    #fix 3 all recenter INIT INIT INIT # Prevent the center of mass to move from is original position
	run 6000
Per MPI rank memory allocation (min/avg/max) = 5.865 | 8.054 | 8.618 Mbytes
Step KinEng PotEng TotEng Temp Press Volume Time v_amp 
0 0.00000000e+00 -7.52744318e+05 -7.52744318e+05 0.00000000e+00 -5.57781214e+02 4.84785489e+06 0.000000 -5.25324773e-07 
100 8.72455109e-09 -7.52744318e+05 -7.52744318e+05 2.95001571e-10 -5.57781214e+02 4.84785489e+06 0.100000 6.35216624e-06 
200 6.52499600e-08 -7.52744318e+05 -7.52744318e+05 2.20628437e-09 -5.57781214e+02 4.84785489e+06 0.200000 -1.86811465e-05 
300 3.55546027e-07 -7.52744318e+05 -7.52744318e+05 1.20220096e-08 -5.57781214e+02 4.84785489e+06 0.300000 3.26487624e-05 
400 1.22950454e-06 -7.52744318e+05 -7.52744318e+05 4.15730011e-08 -5.57781213e+02 4.84785489e+06 0.400000 -3.05317664e-05 
500 2.94856588e-06 -7.52744318e+05 -7.52744318e+05 9.96992923e-08 -5.57781212e+02 4.84785489e+06 0.500000 -1.29154194e-05 
600 6.66412845e-06 -7.52744318e+05 -7.52744318e+05 2.25332896e-07 -5.57781210e+02 4.84785489e+06 0.600000 1.06181927e-04 
700 1.73242111e-05 -7.52744318e+05 -7.52744318e+05 5.85780226e-07 -5.57781202e+02 4.84785489e+06 0.700000 -2.12314861e-04 
800 4.03786413e-05 -7.52744318e+05 -7.52744318e+05 1.36531525e-06 -5.57780826e+02 4.84785489e+06 0.800000 2.52285160e-04 
900 7.10539885e-05 -7.52744318e+05 -7.52744318e+05 2.40253487e-06 -5.57777331e+02 4.84785489e+06 0.900000 -1.60407633e-04 
1000 1.00702865e-04 -7.52744318e+05 -7.52744317e+05 3.40504666e-06 -5.57783266e+02 4.84785489e+06 1.000000 -4.61349155e-05 
1100 1.35186230e-04 -7.52744318e+05 -7.52744317e+05 4.57102606e-06 -5.57772853e+02 4.84785489e+06 1.100000 2.58279623e-04 
1200 1.82813306e-04 -7.52744317e+05 -7.52744317e+05 6.18143124e-06 -5.57782480e+02 4.84785489e+06 1.200000 -3.70616980e-04 
1300 2.37010965e-04 -7.52744317e+05 -7.52744317e+05 8.01400626e-06 -5.57789646e+02 4.84785489e+06 1.300000 3.41391247e-04 
1400 2.77290286e-04 -7.52744317e+05 -7.52744317e+05 9.37596323e-06 -5.57740809e+02 4.84785489e+06 1.400000 -1.81765661e-04 
1500 2.93641420e-04 -7.52744317e+05 -7.52744317e+05 9.92884099e-06 -5.57849615e+02 4.84785489e+06 1.500000 -4.72882290e-05 
1600 3.26799137e-04 -7.52744317e+05 -7.52744317e+05 1.10499965e-05 -5.57696382e+02 4.84785489e+06 1.600000 2.58279623e-04 
1700 4.30069119e-04 -7.52744317e+05 -7.52744317e+05 1.45418446e-05 -5.57831056e+02 4.84785489e+06 1.700000 -3.70616980e-04 
1800 5.32699399e-04 -7.52744317e+05 -7.52744317e+05 1.80120625e-05 -5.57804702e+02 4.84785489e+06 1.800000 3.41391247e-04 
1900 4.91692149e-04 -7.52744317e+05 -7.52744317e+05 1.66254923e-05 -5.57665327e+02 4.84785489e+06 1.900000 -1.81765661e-04 
2000 3.77449888e-04 -7.52744317e+05 -7.52744317e+05 1.27626406e-05 -5.57943366e+02 4.84785489e+06 2.000000 -4.72882290e-05 
2100 4.48668072e-04 -7.52744317e+05 -7.52744317e+05 1.51707274e-05 -5.57626043e+02 4.84785489e+06 2.100000 2.58279623e-04 
2200 7.34485789e-04 -7.52744317e+05 -7.52744316e+05 2.48350270e-05 -5.57859635e+02 4.84785489e+06 2.200000 -3.70616980e-04 
2300 9.05305596e-04 -7.52744317e+05 -7.52744316e+05 3.06109243e-05 -5.57798867e+02 4.84785489e+06 2.300000 3.41391247e-04 
2400 7.41396791e-04 -7.52744317e+05 -7.52744316e+05 2.50687074e-05 -5.57663586e+02 4.84785489e+06 2.400000 -1.81765661e-04 
2500 5.19741434e-04 -7.52744317e+05 -7.52744316e+05 1.75739174e-05 -5.57944264e+02 4.84785489e+06 2.500000 -4.72882290e-05 
2600 6.41544786e-04 -7.52744317e+05 -7.52744316e+05 2.16924307e-05 -5.57625000e+02 4.84785489e+06 2.600000 2.58279623e-04 
2700 1.02336171e-03 -7.52744317e+05 -7.52744316e+05 3.46027331e-05 -5.57861306e+02 4.84785489e+06 2.700000 -3.70616980e-04 
2800 1.23498352e-03 -7.52744317e+05 -7.52744316e+05 4.17582607e-05 -5.57798528e+02 4.84785489e+06 2.800000 3.41391247e-04 
2900 1.13266938e-03 -7.52744317e+05 -7.52744316e+05 3.82987324e-05 -5.57663173e+02 4.84785489e+06 2.900000 -1.81765661e-04 
3000 9.63015104e-04 -7.52744316e+05 -7.52744315e+05 3.25622449e-05 -5.57945424e+02 4.84785489e+06 3.000000 -4.72882290e-05 
3100 9.70382773e-04 -7.52744316e+05 -7.52744315e+05 3.28113665e-05 -5.57623778e+02 4.84785489e+06 3.100000 2.58279623e-04 
3200 1.18647277e-03 -7.52744316e+05 -7.52744315e+05 4.01179761e-05 -5.57861967e+02 4.84785489e+06 3.200000 -3.70616980e-04 
3300 1.46763263e-03 -7.52744317e+05 -7.52744315e+05 4.96247805e-05 -5.57798457e+02 4.84785489e+06 3.300000 3.41391247e-04 
3400 1.61783154e-03 -7.52744316e+05 -7.52744315e+05 5.47034273e-05 -5.57662718e+02 4.84785489e+06 3.400000 -1.81765661e-04 
3500 1.53969885e-03 -7.52744316e+05 -7.52744315e+05 5.20615419e-05 -5.57946505e+02 4.84785489e+06 3.500000 -4.72882290e-05 
3600 1.33323862e-03 -7.52744316e+05 -7.52744315e+05 4.50805414e-05 -5.57622806e+02 4.84785489e+06 3.600000 2.58279623e-04 
3700 1.25766207e-03 -7.52744316e+05 -7.52744314e+05 4.25250860e-05 -5.57862853e+02 4.84785489e+06 3.700000 -3.70616980e-04 
3800 1.55514865e-03 -7.52744316e+05 -7.52744314e+05 5.25839428e-05 -5.57798259e+02 4.84785489e+06 3.800000 3.41391247e-04 
3900 2.11798909e-03 -7.52744316e+05 -7.52744314e+05 7.16151587e-05 -5.57662172e+02 4.84785489e+06 3.900000 -1.81765661e-04 
4000 2.34596308e-03 -7.52744316e+05 -7.52744314e+05 7.93235995e-05 -5.57947598e+02 4.84785489e+06 4.000000 -4.72882290e-05 
4100 1.83483443e-03 -7.52744316e+05 -7.52744314e+05 6.20409043e-05 -5.57621776e+02 4.84785489e+06 4.100000 2.58279623e-04 
4200 1.19543499e-03 -7.52744315e+05 -7.52744314e+05 4.04210140e-05 -5.57863164e+02 4.84785489e+06 4.200000 -3.70616980e-04 
4300 1.47200640e-03 -7.52744315e+05 -7.52744314e+05 4.97726698e-05 -5.57798902e+02 4.84785489e+06 4.300000 3.41391247e-04 
4400 2.60747565e-03 -7.52744316e+05 -7.52744313e+05 8.81660738e-05 -5.57661040e+02 4.84785489e+06 4.400000 -1.81765661e-04 
4500 3.21420672e-03 -7.52744317e+05 -7.52744313e+05 1.08681355e-04 -5.57949378e+02 4.84785489e+06 4.500000 -4.72882290e-05 
4600 2.37291222e-03 -7.52744316e+05 -7.52744313e+05 8.02348254e-05 -5.57623150e+02 4.84785489e+06 4.600000 2.58279623e-04 
4700 1.11634584e-03 -7.52744314e+05 -7.52744313e+05 3.77467877e-05 -5.57865280e+02 4.84785489e+06 4.700000 -3.70616980e-04 
4800 1.27324973e-03 -7.52744314e+05 -7.52744313e+05 4.30521486e-05 -5.57801123e+02 4.84785489e+06 4.800000 3.41391247e-04 
4900 2.90890028e-03 -7.52744316e+05 -7.52744313e+05 9.83580867e-05 -5.57663169e+02 4.84785489e+06 4.900000 -1.81765661e-04 
5000 3.93990040e-03 -7.52744317e+05 -7.52744313e+05 1.33219096e-04 -5.57950017e+02 4.84785489e+06 5.000000 -4.72882290e-05 
5100 2.86744725e-03 -7.52744316e+05 -7.52744313e+05 9.69564433e-05 -5.57625022e+02 4.84785489e+06 5.100000 2.58279623e-04 
5200 1.02472537e-03 -7.52744314e+05 -7.52744313e+05 3.46488421e-05 -5.57866618e+02 4.84785489e+06 5.200000 -3.70616980e-04 
5300 9.85234706e-04 -7.52744314e+05 -7.52744313e+05 3.33135520e-05 -5.57787804e+02 4.84785489e+06 5.300000 3.41391247e-04 
5400 3.02164577e-03 -7.52744316e+05 -7.52744313e+05 1.02170329e-04 -5.57696853e+02 4.84785489e+06 5.400000 -1.81765661e-04 
5500 4.48447414e-03 -7.52744317e+05 -7.52744313e+05 1.51632663e-04 -5.57894574e+02 4.84785489e+06 5.500000 -4.72882290e-05 
5600 3.29424525e-03 -7.52744316e+05 -7.52744313e+05 1.11387682e-04 -5.57686986e+02 4.84785489e+06 5.600000 2.58279623e-04 
5700 9.68190822e-04 -7.52744314e+05 -7.52744313e+05 3.27372504e-05 -5.57830111e+02 4.84785489e+06 5.700000 -3.70616980e-04 
5800 7.46699698e-04 -7.52744313e+05 -7.52744312e+05 2.52480136e-05 -5.57772926e+02 4.84785489e+06 5.800000 3.41391247e-04 
5900 3.10160419e-03 -7.52744316e+05 -7.52744312e+05 1.04873947e-04 -5.57774459e+02 4.84785489e+06 5.900000 -1.81765661e-04 
6000 4.90827839e-03 -7.52744317e+05 -7.52744312e+05 1.65962675e-04 -5.57791057e+02 4.84785489e+06 6.000000 -4.72882290e-05 
Loop time of 163.688 on 20 procs for 6000 steps with 228800 atoms

Performance: 3.167 ns/day, 7.578 hours/ns, 36.655 timesteps/s
91.5% CPU use with 20 MPI tasks x 1 OpenMP threads

MPI task timing breakdown:
Section |  min time  |  avg time  |  max time  |%varavg| %total
---------------------------------------------------------------
Pair    | 61.237     | 76.248     | 82.195     |  64.3 | 46.58
Neigh   | 0          | 0          | 0          |   0.0 |  0.00
Comm    | 3.4383     | 7.837      | 21.317     | 181.5 |  4.79
Output  | 74.584     | 74.612     | 74.647     |   0.2 | 45.58
Modify  | 1.1883     | 1.3555     | 1.4868     |   6.1 |  0.83
Other   |            | 3.635      |            |       |  2.22

Nlocal:        11440.0 ave       12100 max        8960 min
Histogram: 2 0 0 2 0 0 0 2 2 12
Nghost:        5541.25 ave        6184 max        4209 min
Histogram: 2 0 0 2 0 2 4 2 0 8
Neighs:         0.00000 ave           0 max           0 min
Histogram: 20 0 0 0 0 0 0 0 0 0
FullNghs:      182391.0 ave      193600 max      141835 min
Histogram: 2 0 0 2 0 0 0 2 2 12

Total # of neighbors = 3647824
Ave neighs/atom = 15.943287
Neighbor list builds = 0
Dangerous builds = 0

    next f
    # undo fix, compute.. before switching to the next iteration
    unfix 5
    unfix 4
    unfix 3
ERROR: Could not find fix ID to delete (src/modify.cpp:1063)
Last command:     unfix 3
