    compute kinAt all ke/atom
    dump 1 all custom 100 res/wp2_c.dump.gz id type x y z c_kinAt
    dump_modify 1 format line "%d %d %.7f %.7f %.7f %.6e"
    thermo         100
    thermo_style   custom step ke pe etotal temp press vol time v_amp
WARNING: New thermo_style command, previous thermo_modify settings will be lost (src/output.cpp:689)
    thermo_modify format line "%d %.8e %.8e %.8e %.8e %.8e %.8e %f %.8e"
    #compute chunk all chunk/atom bin/1d x lower $(1/v_Nbin) units reduced # passage en bin 2d

    # output the kin(pos,time)
    fix 4 fixed1 setforce 0.0 0.0 0.0
    fix 5 fixed2 setforce 0.0 0.0 0.0

    # fix FKin all ave/chunk 10 1 10 chunk c_kinAt file res/AverageEkinfreq$fNbin${Nbin}.out



    fix 1 all nve
    fix 2 AtImpulse addforce  v_amp 0.0 0.0  # excitation, the orientation can be changed by changing the component over the different direction
    #fix 3 all recenter INIT INIT INIT # Prevent the center of mass to move from is original position
	run 6000
Per MPI rank memory allocation (min/avg/max) = 5.083 | 5.584 | 5.655 Mbytes
Step KinEng PotEng TotEng Temp Press Volume Time v_amp 
0 0.00000000e+00 -5.16295066e+05 -5.16295066e+05 0.00000000e+00 -4.01596201e+02 3.34610958e+06 0.000000 -5.25324773e-07 
100 6.02781038e-09 -5.16295066e+05 -5.16295066e+05 2.97028456e-10 -4.01596201e+02 3.34610958e+06 0.100000 6.35216624e-06 
200 4.50809854e-08 -5.16295066e+05 -5.16295066e+05 2.22142613e-09 -4.01596201e+02 3.34610958e+06 0.200000 -1.86811465e-05 
300 2.45644024e-07 -5.16295066e+05 -5.16295066e+05 1.21044393e-08 -4.01596200e+02 3.34610958e+06 0.300000 3.26487624e-05 
400 8.49454849e-07 -5.16295066e+05 -5.16295066e+05 4.18580290e-08 -4.01596200e+02 3.34610958e+06 0.400000 -3.05317664e-05 
500 2.03714773e-06 -5.16295066e+05 -5.16295066e+05 1.00383192e-07 -4.01596199e+02 3.34610958e+06 0.500000 -1.29154194e-05 
600 4.60422715e-06 -5.16295066e+05 -5.16295066e+05 2.26879479e-07 -4.01596196e+02 3.34610958e+06 0.600000 1.06181927e-04 
700 1.19692161e-05 -5.16295066e+05 -5.16295066e+05 5.89799207e-07 -4.01596188e+02 3.34610958e+06 0.700000 -2.12314861e-04 
800 2.78973384e-05 -5.16295066e+05 -5.16295066e+05 1.37467883e-06 -4.01595773e+02 3.34610958e+06 0.800000 2.52285160e-04 
900 4.90905031e-05 -5.16295066e+05 -5.16295066e+05 2.41900050e-06 -4.01591868e+02 3.34610958e+06 0.900000 -1.60407633e-04 
1000 6.95731971e-05 -5.16295066e+05 -5.16295066e+05 3.42831277e-06 -4.01598485e+02 3.34610958e+06 1.000000 -4.61349155e-05 
1100 9.33962433e-05 -5.16295066e+05 -5.16295066e+05 4.60222538e-06 -4.01586956e+02 3.34610958e+06 1.100000 2.58279623e-04 
1200 1.26346576e-04 -5.16295066e+05 -5.16295066e+05 6.22589729e-06 -4.01597860e+02 3.34610958e+06 1.200000 -3.70616980e-04 
1300 1.63927709e-04 -5.16295066e+05 -5.16295066e+05 8.07775811e-06 -4.01605282e+02 3.34610958e+06 1.300000 3.41391247e-04 
1400 1.91568996e-04 -5.16295066e+05 -5.16295066e+05 9.43981966e-06 -4.01551867e+02 3.34610958e+06 1.400000 -1.81765661e-04 
1500 2.01721992e-04 -5.16295066e+05 -5.16295066e+05 9.94012219e-06 -4.01671598e+02 3.34610958e+06 1.500000 -4.72882290e-05 
1600 2.24224714e-04 -5.16295066e+05 -5.16295066e+05 1.10489741e-05 -4.01502222e+02 3.34610958e+06 1.600000 2.58279623e-04 
1700 2.99117789e-04 -5.16295066e+05 -5.16295066e+05 1.47394309e-05 -4.01651627e+02 3.34610958e+06 1.700000 -3.70616980e-04 
1800 3.73961172e-04 -5.16295066e+05 -5.16295066e+05 1.84274392e-05 -4.01621305e+02 3.34610958e+06 1.800000 3.41391247e-04 
1900 3.40969104e-04 -5.16295066e+05 -5.16295066e+05 1.68017107e-05 -4.01469003e+02 3.34610958e+06 1.900000 -1.81765661e-04 
2000 2.52030700e-04 -5.16295066e+05 -5.16295066e+05 1.24191514e-05 -4.01773790e+02 3.34610958e+06 2.000000 -4.72882290e-05 
2100 3.01887475e-04 -5.16295066e+05 -5.16295066e+05 1.48759109e-05 -4.01427104e+02 3.34610958e+06 2.100000 2.58279623e-04 
2200 5.14006764e-04 -5.16295066e+05 -5.16295065e+05 2.53283739e-05 -4.01680080e+02 3.34610958e+06 2.200000 -3.70616980e-04 
2300 6.41309223e-04 -5.16295066e+05 -5.16295065e+05 3.16013736e-05 -4.01617932e+02 3.34610958e+06 2.300000 3.41391247e-04 
2400 5.16925450e-04 -5.16295066e+05 -5.16295065e+05 2.54721961e-05 -4.01465810e+02 3.34610958e+06 2.400000 -1.81765661e-04 
2500 3.46985033e-04 -5.16295066e+05 -5.16295065e+05 1.70981537e-05 -4.01774109e+02 3.34610958e+06 2.500000 -4.72882290e-05 
2600 4.34335672e-04 -5.16295066e+05 -5.16295065e+05 2.14024738e-05 -4.01427481e+02 3.34610958e+06 2.600000 2.58279623e-04 
2700 7.19465139e-04 -5.16295066e+05 -5.16295065e+05 3.54526114e-05 -4.01680047e+02 3.34610958e+06 2.700000 -3.70616980e-04 
2800 8.77231159e-04 -5.16295066e+05 -5.16295065e+05 4.32267440e-05 -4.01618457e+02 3.34610958e+06 2.800000 3.41391247e-04 
2900 7.94471100e-04 -5.16295066e+05 -5.16295065e+05 3.91486309e-05 -4.01465566e+02 3.34610958e+06 2.900000 -1.81765661e-04 
3000 6.60560087e-04 -5.16295065e+05 -5.16295065e+05 3.25499858e-05 -4.01774418e+02 3.34610958e+06 3.000000 -4.72882290e-05 
3100 6.68907560e-04 -5.16295065e+05 -5.16295065e+05 3.29613188e-05 -4.01427677e+02 3.34610958e+06 3.100000 2.58279623e-04 
3200 8.38589879e-04 -5.16295065e+05 -5.16295065e+05 4.13226430e-05 -4.01679825e+02 3.34610958e+06 3.200000 -3.70616980e-04 
3300 1.04477368e-03 -5.16295066e+05 -5.16295064e+05 5.14826268e-05 -4.01618638e+02 3.34610958e+06 3.300000 3.41391247e-04 
3400 1.13882044e-03 -5.16295065e+05 -5.16295064e+05 5.61169072e-05 -4.01465722e+02 3.34610958e+06 3.400000 -1.81765661e-04 
3500 1.07008972e-03 -5.16295065e+05 -5.16295064e+05 5.27301088e-05 -4.01774286e+02 3.34610958e+06 3.500000 -4.72882290e-05 
3600 9.28642857e-04 -5.16295065e+05 -5.16295064e+05 4.57601245e-05 -4.01428066e+02 3.34610958e+06 3.600000 2.58279623e-04 
3700 8.88934444e-04 -5.16295065e+05 -5.16295064e+05 4.38034391e-05 -4.01679509e+02 3.34610958e+06 3.700000 -3.70616980e-04 
3800 1.10194284e-03 -5.16295065e+05 -5.16295064e+05 5.42997141e-05 -4.01619086e+02 3.34610958e+06 3.800000 3.41391247e-04 
3900 1.49295837e-03 -5.16295065e+05 -5.16295064e+05 7.35675297e-05 -4.01465307e+02 3.34610958e+06 3.900000 -1.81765661e-04 
4000 1.65198692e-03 -5.16295065e+05 -5.16295064e+05 8.14038749e-05 -4.01774978e+02 3.34610958e+06 4.000000 -4.72882290e-05 
4100 1.29339934e-03 -5.16295065e+05 -5.16295064e+05 6.37339903e-05 -4.01427704e+02 3.34610958e+06 4.100000 2.58279623e-04 
4200 8.39814442e-04 -5.16295064e+05 -5.16295064e+05 4.13829850e-05 -4.01679702e+02 3.34610958e+06 4.200000 -3.70616980e-04 
4300 1.03148669e-03 -5.16295065e+05 -5.16295063e+05 5.08278928e-05 -4.01619097e+02 3.34610958e+06 4.300000 3.41391247e-04 
4400 1.83934543e-03 -5.16295065e+05 -5.16295063e+05 9.06362176e-05 -4.01465159e+02 3.34610958e+06 4.400000 -1.81765661e-04 
4500 2.28108654e-03 -5.16295066e+05 -5.16295063e+05 1.12403604e-04 -4.01775806e+02 3.34610958e+06 4.500000 -4.72882290e-05 
4600 1.68768444e-03 -5.16295065e+05 -5.16295063e+05 8.31629182e-05 -4.01429576e+02 3.34610958e+06 4.600000 2.58279623e-04 
4700 7.79229769e-04 -5.16295064e+05 -5.16295063e+05 3.83975939e-05 -4.01682822e+02 3.34610958e+06 4.700000 -3.70616980e-04 
4800 8.72860059e-04 -5.16295064e+05 -5.16295063e+05 4.30113522e-05 -4.01620114e+02 3.34610958e+06 4.800000 3.41391247e-04 
4900 2.04803441e-03 -5.16295065e+05 -5.16295063e+05 1.00919647e-04 -4.01468969e+02 3.34610958e+06 4.900000 -1.81765661e-04 
5000 2.81711399e-03 -5.16295066e+05 -5.16295063e+05 1.38817077e-04 -4.01775463e+02 3.34610958e+06 5.000000 -4.72882290e-05 
5100 2.06285084e-03 -5.16295065e+05 -5.16295063e+05 1.01649747e-04 -4.01431633e+02 3.34610958e+06 5.100000 2.58279623e-04 
5200 7.11306910e-04 -5.16295064e+05 -5.16295063e+05 3.50506037e-05 -4.01684968e+02 3.34610958e+06 5.200000 -3.70616980e-04 
5300 6.46293860e-04 -5.16295063e+05 -5.16295063e+05 3.18469983e-05 -4.01604512e+02 3.34610958e+06 5.300000 3.41391247e-04 
5400 2.12231540e-03 -5.16295065e+05 -5.16295063e+05 1.04579943e-04 -4.01507047e+02 3.34610958e+06 5.400000 -1.81765661e-04 
5500 3.22679055e-03 -5.16295066e+05 -5.16295063e+05 1.59004440e-04 -4.01714366e+02 3.34610958e+06 5.500000 -4.72882290e-05 
5600 2.39076934e-03 -5.16295065e+05 -5.16295063e+05 1.17808372e-04 -4.01499554e+02 3.34610958e+06 5.600000 2.58279623e-04 
5700 6.70418759e-04 -5.16295063e+05 -5.16295063e+05 3.30357851e-05 -4.01645652e+02 3.34610958e+06 5.700000 -3.70616980e-04 
5800 4.58707378e-04 -5.16295063e+05 -5.16295063e+05 2.26034224e-05 -4.01587160e+02 3.34610958e+06 5.800000 3.41391247e-04 
5900 2.17218012e-03 -5.16295065e+05 -5.16295063e+05 1.07037094e-04 -4.01592458e+02 3.34610958e+06 5.900000 -1.81765661e-04 
6000 3.54310334e-03 -5.16295066e+05 -5.16295063e+05 1.74591178e-04 -4.01601225e+02 3.34610958e+06 6.000000 -4.72882290e-05 
Loop time of 111.19 on 20 procs for 6000 steps with 157000 atoms

Performance: 4.662 ns/day, 5.148 hours/ns, 53.962 timesteps/s
91.6% CPU use with 20 MPI tasks x 1 OpenMP threads

MPI task timing breakdown:
Section |  min time  |  avg time  |  max time  |%varavg| %total
---------------------------------------------------------------
Pair    | 34.535     | 52.474     | 55.853     |  82.4 | 47.19
Neigh   | 0          | 0          | 0          |   0.0 |  0.00
Comm    | 1.0352     | 3.9147     | 21.307     | 291.8 |  3.52
Output  | 52.013     | 52.022     | 52.027     |   0.1 | 46.79
Modify  | 0.60319    | 0.93119    | 1.0768     |  12.1 |  0.84
Other   |            | 1.849      |            |       |  1.66

Nlocal:        7850.00 ave        8360 max        4457 min
Histogram: 2 0 0 0 0 0 0 2 0 16
Nghost:        4516.35 ave        4965 max        2574 min
Histogram: 2 0 0 0 1 1 0 2 2 12
Neighs:         0.00000 ave           0 max           0 min
Histogram: 20 0 0 0 0 0 0 0 0 0
FullNghs:      125074.0 ave      133760 max       68223 min
Histogram: 2 0 0 0 0 0 0 2 0 16

Total # of neighbors = 2501482
Ave neighs/atom = 15.933006
Neighbor list builds = 0
Dangerous builds = 0

    next f
    # undo fix, compute.. before switching to the next iteration
    unfix 5
    unfix 4
    unfix 3
ERROR: Could not find fix ID to delete (src/modify.cpp:1063)
Last command:     unfix 3
